/*--------------------------------*- C++ -*----------------------------------*\
| =========                 |                                                 |
| \\      /  F ield         | OpenFOAM: The Open Source CFD Toolbox           |
|  \\    /   O peration     | Version:  2312                                  |
|   \\  /    A nd           | Website:  www.openfoam.com                      |
|    \\/     M anipulation  |                                                 |
\*---------------------------------------------------------------------------*/
FoamFile
{
    version     2.0;
    format      ascii;
    arch        "LSB;label=32;scalar=64";
    class       polyBoundaryMesh;
    location    "constant/polyMesh";
    object      boundary;
}
// * * * * * * * * * * * * * * * * * * * * * * * * * * * * * * * * * * * * * //

7
(
    Floor
    {
        type            wall;
        physicalType    wall;
        nFaces          17640;
        startFace       2954308;
    }
    Inlet
    {
        type            patch;
        physicalType    patch;
        nFaces          5488;
        startFace       2971948;
    }
    LeftWall
    {
        type            wall;
        physicalType    wall;
        nFaces          10192;
        startFace       2977436;
    }
    CubeWall
    {
        type            wall;
        physicalType    wall;
        nFaces          980;
        startFace       2987628;
    }
    Outlet
    {
        type            patch;
        physicalType    patch;
        nFaces          5488;
        startFace       2988608;
    }
    RightWall
    {
        type            wall;
        physicalType    wall;
        nFaces          10192;
        startFace       2994096;
    }
    Ceiling
    {
        type            wall;
        physicalType    wall;
        nFaces          17836;
        startFace       3004288;
    }
)

// ************************************************************************* //
