/*--------------------------------*- C++ -*----------------------------------*\
| =========                 |                                                 |
| \\      /  F ield         | OpenFOAM: The Open Source CFD Toolbox           |
|  \\    /   O peration     | Version:  v2306                                 |
|   \\  /    A nd           | Website:  www.openfoam.com                      |
|    \\/     M anipulation  |                                                 |
\*---------------------------------------------------------------------------*/
FoamFile
{
    version     2.0;
    format      ascii;
    class       volVectorField;
    object      U;
}
// * * * * * * * * * * * * * * * * * * * * * * * * * * * * * * * * * * * * * //

dimensions      [0 1 -1 0 0 0 0];

internalField   uniform (500 0 0);

boundaryField
{
/*
    Inlet
    {
        type            fixedValue;
	value		uniform (500 0 0);
    }
*/
    Inlet
    {
        type            uniformFixedValue;
        uniformValue    table
        (
            (0   (500 0 0))
            (0.1 (500 0 0))
            (0.2 (600 0 0))
            (0.3 (700 0 0))
            (0.4 (800 0 0))
            (0.5 (900 0 0))
            (0.6 (1000 0 0))
            (0.7 (1100 0 0))
            (0.8 (1200 0 0))
            (0.9 (1300 0 0))
            (1.0 (1400 0 0))
        );
           outOfBounds clamp;
    }

    Outlet
    {
        type            zeroGradient;
    }

    Wall
    {
        type            noSlip;
    }

    Side
    {
        type            empty;
    }
}


// ************************************************************************* //
