/*--------------------------------*- C++ -*----------------------------------*\
| =========                 |                                                 |
| \\      /  F ield         | OpenFOAM: The Open Source CFD Toolbox           |
|  \\    /   O peration     | Version:  v2412                                 |
|   \\  /    A nd           | Website:  www.openfoam.com                      |
|    \\/     M anipulation  |                                                 |
\*---------------------------------------------------------------------------*/
FoamFile
{
    version     2.0;
    format      ascii;
    class       volVectorField;
    object      U;
}
// * * * * * * * * * * * * * * * * * * * * * * * * * * * * * * * * * * * * * //

dimensions      [0 1 -1 0 0 0 0];

internalField   uniform (0 0 0);

boundaryField
{
    inlet_01
    {
        //type            fixedValue;
        //value           uniform (2 0 0);
        type            pressureInletOutletVelocity;
        inletValue      uniform (0 0 0);
        value           uniform (0 0 0);
    }
    inlet_02
    {
        type            fixedValue;
        value           uniform (4 0 0);
    }
    inlet_03
    {
        type            fixedValue;
        value           uniform (6 0 0);
    }
    inlet_04
    {
        type            fixedValue;
        value           uniform (8 0 0);
    }
    inlet_05
    {
        type            fixedValue;
        value           uniform (10 0 0);
    }
    inlet_06
    {
        type            fixedValue;
        value           uniform (4 0 0);
    }
    outlet
    {
        type            pressureInletOutletVelocity;
        inletValue      uniform (0 0 0);
        value           uniform (0 0 0);
    }

    wall
    {
        type            noSlip;
    }

    frontAndBack
    {
        type            empty;
    }
}


// ************************************************************************* //
